16   
Iteration 0 Energy -1104.38012972
S        1.6198000000   -1.3808000000    0.3663000000
S       -1.6198000000    1.3807000000    0.3663000000
C        0.7092000000    0.0181000000   -0.0163000000
C       -0.7092000000   -0.0181000000   -0.0163000000
C        1.5156000000    1.0983000000   -0.3001000000
C       -1.5157000000   -1.0982000000   -0.3001000000
C        2.8994000000    0.7731000000   -0.2024000000
C       -2.8994000000   -0.7731000000   -0.2024000000
C        3.0978000000   -0.5430000000    0.1525000000
C       -3.0978000000    0.5430000000    0.1525000000
H        1.1553000000    2.0818000000   -0.5754000000
H       -1.1553000000   -2.0818000000   -0.5753000000
H        3.7083000000    1.4685000000   -0.3851000000
H       -3.7083000000   -1.4685000000   -0.3851000000
H        4.0400000000   -1.0528000000    0.2959000000
H       -4.0401000000    1.0529000000    0.2959000000
16   
Iteration 1 Energy -1104.37728390
S        1.5753718764   -1.2974421649    0.5496344751
S       -1.5753753959    1.2973428831    0.5496219427
C        0.7094094693    0.0054925720   -0.1466659389
C       -0.7094098682   -0.0054893251   -0.1466660301
C        1.5349543302    1.0604279470   -0.4678362772
C       -1.5350527414   -1.0603264197   -0.4678213250
C        2.9062854874    0.7579670202   -0.2263929306
C       -2.9062849125   -0.7579642786   -0.2264002920
C        3.0712295086   -0.4972059800    0.3167092159
C       -3.0712322895    0.4972068351    0.3167050988
H        1.1977822663    2.0071150561   -0.8715634218
H       -1.1977768528   -2.0071235425   -0.8714681869
H        3.7286628291    1.4323653876   -0.4268666496
H       -3.7286609006   -1.4323633880   -0.4268771080
H        3.9965503041   -0.9735812621    0.6083848508
H       -3.9966531083    0.9736786607    0.6084028823
16   
Iteration 2 Energy -1104.37333168
S        1.5306556439   -1.2311485523    0.6481092448
S       -1.5306616091    1.2310497579    0.6480891683
C        0.7094204169   -0.0038294857   -0.2185583921
C       -0.7094206681    0.0038341724   -0.2185585549
C        1.5486619421    1.0333095520   -0.5611029215
C       -1.5487588489   -1.0332076518   -0.5610793100
C        2.9069422390    0.7475475911   -0.2387492594
C       -2.9069417083   -0.7475427188   -0.2387606691
C        3.0413178616   -0.4613280063    0.4082000575
C       -3.0413222135    0.4613295050    0.4081936831
H        1.2312747875    1.9531572666   -1.0365219225
H       -1.2312668871   -1.9531707259   -1.0364299345
H        3.7397511894    1.4061797339   -0.4483227948
H       -3.7397488146   -1.4061756533   -0.4483391184
H        3.9495609396   -0.9122297390    0.7823505196
H       -3.9496642673    0.9123249555    0.7823789459
16   
Iteration 3 Energy -1104.37508512
S        1.6103916269   -1.1912375852    0.7672864654
S       -1.6102902215    1.1912130875    0.7672248268
C        0.7087868471   -0.0295277653   -0.1657437602
C       -0.7088521459    0.0293752579   -0.1657904026
C        1.5861620644    0.9459767408   -0.6060136036
C       -1.5862619096   -0.9461238224   -0.6060789375
C        2.9521743687    0.7154668390   -0.2647505462
C       -2.9521956151   -0.7153715008   -0.2647564063
C        3.1320567599   -0.4266694327    0.4785197533
C       -3.1320015979    0.4267902485    0.4785285508
H        1.2541098980    1.8126298348   -1.1793232361
H       -1.2542663435   -1.8128342544   -1.1793380945
H        3.7754268826    1.3688866856   -0.5588114379
H       -3.7755409769   -1.3686825993   -0.5587939283
H        4.0601582989   -0.8453117424    0.8677342551
H       -4.0600554462    0.8455220817    0.8677402160
16   
Iteration 4 Energy -1104.37650632
S        1.5898814763   -1.1509257168    0.8829045500
S       -1.5899696998    1.1510178965    0.8829429542
C        0.7093514837   -0.0100626670   -0.1302330507
C       -0.7093656544    0.0101852904   -0.1301814808
C        1.5973060886    0.9193729823   -0.6588872786
C       -1.5973080785   -0.9193057192   -0.6588294505
C        2.9565279187    0.7070009029   -0.2908837512
C       -2.9566089555   -0.7070737587   -0.2908837043
C        3.0992793463   -0.3775629137    0.5407841102
C       -3.0992927292    0.3775167345    0.5407844404
H        1.2604715702    1.7306266638   -1.3131411257
H       -1.2604283347   -1.7304817958   -1.3130750369
H        3.7940576331    1.3207611898   -0.6406450322
H       -3.7941223884   -1.3208560536   -0.6406527128
H        4.0260334660   -0.7863012375    0.9524502542
H       -4.0260069164    0.7861959653    0.9524176436
16   
Iteration 5 Energy -1104.37656717
S        1.5999563387   -1.0935917264    0.9758705692
S       -1.6000234490    1.0935705528    0.9758388378
C        0.7093117752    0.0125131905   -0.0776760965
C       -0.7093286204   -0.0125519310   -0.0776856622
C        1.5757461549    0.9139512266   -0.6712088119
C       -1.5757057352   -0.9140206895   -0.6712406728
C        2.9333791552    0.6739552037   -0.3192156510
C       -2.9333152360   -0.6738668384   -0.3191585906
C        3.1100110872   -0.3705869551    0.5540764489
C       -3.1101478889    0.3706595764    0.5541045347
H        1.2297802985    1.6983289897   -1.3499770181
H       -1.2297924346   -1.6983927824   -1.3500103988
H        3.7657731916    1.2586654641   -0.7179531235
H       -3.7657005382   -1.2585814379   -0.7178981009
H        4.0437170503   -0.7737106595    0.9496152150
H       -4.0438598460    0.7737587557    0.9495915932
16   
Iteration 6 Energy -1104.37722246
S        1.6172709482   -1.0750524968    1.0094146666
S       -1.6172806477    1.0750701808    1.0094053826
C        0.7093799975    0.0074330722   -0.0449887089
C       -0.7094041246   -0.0074259491   -0.0449966724
C        1.5735737367    0.8904580498   -0.6570041202
C       -1.5736003404   -0.8904416042   -0.6569923852
C        2.9442408752    0.6674501155   -0.3422197321
C       -2.9442647033   -0.6674405679   -0.3422086978
C        3.1196431414   -0.3665638646    0.5426963971
C       -3.1196639571    0.3665806535    0.5426834425
H        1.2163284259    1.6662645879   -1.3347556416
H       -1.2163660295   -1.6662549153   -1.3347569386
H        3.7673007479    1.2462705710   -0.7615934484
H       -3.7673216503   -1.2462768074   -0.7615671906
H        4.0550692673   -0.7650247118    0.9312050675
H       -4.0551068284    0.7650485251    0.9311965038
16   
Iteration 7 Energy -1104.37758578
S        1.6308490686   -1.0500103275    1.0547637447
S       -1.6308696616    1.0500406469    1.0547587285
C        0.7092866674    0.0137285692   -0.0045917936
C       -0.7093099325   -0.0137077351   -0.0045928124
C        1.5680377141    0.8643138791   -0.6669593872
C       -1.5680652252   -0.8642923701   -0.6669382377
C        2.9445575613    0.6473786820   -0.3665953424
C       -2.9445880972   -0.6473744541   -0.3665945638
C        3.1283511657   -0.3564422446    0.5509317598
C       -3.1283699671    0.3564489644    0.5509227437
H        1.2040543974    1.6219202878   -1.3619186018
H       -1.2040852376   -1.6219090135   -1.3619032518
H        3.7629717359    1.2132831691   -0.8124669545
H       -3.7629944299   -1.2132966316   -0.8124595566
H        4.0680127729   -0.7369242940    0.9481370086
H       -4.0680430189    0.7369329582    0.9481379973
16   
Iteration 8 Energy -1104.37781524
S        1.6556683460   -1.0061865491    1.1317531150
S       -1.6556904227    1.0062030251    1.1317526425
C        0.7088018439    0.0295592129    0.0714325740
C       -0.7088281220   -0.0295540199    0.0714284220
C        1.5500824651    0.8337652040   -0.6689634675
C       -1.5501101493   -0.8337609393   -0.6689643537
C        2.9343699269    0.6189753637   -0.4000167912
C       -2.9343971316   -0.6189690131   -0.4000081288
C        3.1419309462   -0.3516459025    0.5479997857
C       -3.1419549853    0.3516681939    0.5479927769
H        1.1715649201    1.5635960157   -1.3868335805
H       -1.1716010479   -1.5636007066   -1.3868309698
H        3.7423893833    1.1624988232   -0.8923414733
H       -3.7424158320   -1.1625007265   -0.8923250288
H        4.0922675531   -0.7166799996    0.9366021679
H       -4.0922868701    0.7167133625    0.9365945690
16   
Iteration 9 Energy -1104.37782961
S        1.6583284686   -1.0058239908    1.1352953350
S       -1.6583651901    1.0058482448    1.1352902057
C        0.7089333344    0.0263102791    0.0765768519
C       -0.7089533717   -0.0262852927    0.0765827947
C        1.5488342508    0.8270890090   -0.6705319229
C       -1.5488575191   -0.8270698289   -0.6705161992
C        2.9332756816    0.6132107853   -0.4044110888
C       -2.9333057103   -0.6132100652   -0.4044094893
C        3.1436986166   -0.3474856819    0.5533472503
C       -3.1437282291    0.3474882101    0.5533472362
H        1.1693832651    1.5518703472   -1.3929312425
H       -1.1694005698   -1.5518531028   -1.3929086168
H        3.7401472783    1.1526967962   -0.9031776665
H       -3.7401705483   -1.1527046887   -0.9031781400
H        4.0947151298   -0.7058976834    0.9463396353
H       -4.0947441158    0.7058962773    0.9463403455
16   
Iteration 10 Energy -1104.37783090
S        1.6584621396   -1.0030472154    1.1387246123
S       -1.6584799509    1.0030591859    1.1387128569
C        0.7089080648    0.0268439200    0.0781145340
C       -0.7089373375   -0.0268535233    0.0781083237
C        1.5485260318    0.8265721722   -0.6703440335
C       -1.5485529245   -0.8265850785   -0.6703487819
C        2.9330041690    0.6134279188   -0.4044120491
C       -2.9330230448   -0.6134066328   -0.4044029199
C        3.1436640718   -0.3475610333    0.5530760116
C       -3.1436921297    0.3475890086    0.5530763687
H        1.1680830661    1.5497515567   -1.3936803980
H       -1.1681214053   -1.5497768490   -1.3936796192
H        3.7397516155    1.1519827059   -0.9042389525
H       -3.7397757667   -1.1519561991   -0.9042260305
H        4.0947018584   -0.7075046556    0.9443896195
H       -4.0947272701    0.7075442842    0.9443862901
16   
Iteration 11 Energy -1104.37782974
S        1.6585541444   -1.0013565802    1.1411642211
S       -1.6585930416    1.0013963128    1.1411786020
C        0.7089035609    0.0271596775    0.0796602515
C       -0.7089205928   -0.0270959123    0.0796787705
C        1.5481799658    0.8260511555   -0.6702244104
C       -1.5482127190   -0.8259931709   -0.6701841930
C        2.9326023982    0.6126716647   -0.4048375177
C       -2.9326598433   -0.6127044040   -0.4048509050
C        3.1436660950   -0.3473538260    0.5535736719
C       -3.1436712439    0.3473286480    0.5535640936
H        1.1670610232    1.5480214828   -1.3943804330
H       -1.1670663615   -1.5479522249   -1.3943354266
H        3.7393345955    1.1500670676   -0.9059163525
H       -3.7393798843   -1.1501223391   -0.9059282717
H        4.0947517531   -0.7077232443    0.9443168772
H       -4.0947579653    0.7076842215    0.9443155422
16   
Iteration 12 Energy -1104.37782894
S        1.6584881126   -1.0009096067    1.1422401436
S       -1.6584946514    1.0008646107    1.1421796069
C        0.7088939459    0.0269718614    0.0803334803
C       -0.7089374800   -0.0270933405    0.0802890334
C        1.5481607111    0.8253440839   -0.6702428754
C       -1.5481586095   -0.8254694398   -0.6703249689
C        2.9325717124    0.6122331515   -0.4048453665
C       -2.9325045417   -0.6121162629   -0.4047858333
C        3.1435755321   -0.3472771086    0.5541208384
C       -3.1436753389    0.3473921227    0.5541444945
H        1.1667967520    1.5467150327   -1.3948689596
H       -1.1668658106   -1.5468859713   -1.3949480683
H        3.7393560985    1.1492518563   -0.9062677219
H       -3.7393130227   -1.1490946250   -0.9062037555
H        4.0946332738   -0.7076112478    0.9449606737
H       -4.0947356496    0.7077645912    0.9449506374
16   
Iteration 13 Energy -1104.37782849
S        1.6583578469   -1.0007636309    1.1428729212
S       -1.6583700127    1.0008168584    1.1428898150
C        0.7089080332    0.0269140120    0.0807842716
C       -0.7089346211   -0.0268567780    0.0807980956
C        1.5481799549    0.8249327280   -0.6702422788
C       -1.5482331236   -0.8248781774   -0.6702036779
C        2.9324943611    0.6116267667   -0.4046337387
C       -2.9325744294   -0.6116696886   -0.4046597128
C        3.1435927699   -0.3475116647    0.5546961574
C       -3.1435605840    0.3474868593    0.5546785042
H        1.1668237539    1.5460573239   -1.3951335505
H       -1.1668509261   -1.5459934536   -1.3950885247
H        3.7393825598    1.1483734461   -0.9061949467
H       -3.7394635058   -1.1484302225   -0.9062093465
H        4.0946123039   -0.7078205482    0.9456733747
H       -4.0945716756    0.7077938313    0.9456734792
16   
Iteration 14 Energy -1104.37782830
S        1.6583425810   -1.0005766831    1.1435069162
S       -1.6583876132    1.0006081273    1.1435188268
C        0.7089122541    0.0269454817    0.0811886981
C       -0.7089280573   -0.0268862445    0.0812066382
C        1.5482236021    0.8246297922   -0.6701068526
C       -1.5482491917   -0.8245785621   -0.6700701685
C        2.9325673282    0.6111786770   -0.4046675466
C       -2.9326135327   -0.6112026887   -0.4046750628
C        3.1435777142   -0.3476078985    0.5550243187
C       -3.1435968094    0.3475877321    0.5550186026
H        1.1669224739    1.5456571584   -1.3951223618
H       -1.1669230874   -1.5455955778   -1.3950811604
H        3.7394647012    1.1476925753   -0.9064592483
H       -3.7394970175   -1.1477383620   -0.9064680150
H        4.0945900674   -0.7078088724    0.9461179644
H       -4.0946130782    0.7077730349    0.9461153969
16   
Iteration 15 Energy -1104.37782822
S        1.6582835149   -1.0007386582    1.1442043893
S       -1.6582713509    1.0007604356    1.1441823301
C        0.7089020864    0.0268162729    0.0817206416
C       -0.7089445273   -0.0268494397    0.0817015808
C        1.5483721443    0.8241690273   -0.6696820739
C       -1.5484160162   -0.8242015200   -0.6697041915
C        2.9327382054    0.6105647293   -0.4043134845
C       -2.9327670868   -0.6105412356   -0.4043089217
C        3.1435785041   -0.3480547930    0.5555633607
C       -3.1435780623    0.3480956740    0.5555585987
H        1.1672824474    1.5452330356   -1.3947712792
H       -1.1673483599   -1.5452842540   -1.3947875449
H        3.7396596076    1.1469299832   -0.9062204076
H       -3.7397106205   -1.1468889431   -0.9061985236
H        4.0945653404   -0.7082027775    0.9467714660
H       -4.0945533865    0.7082703661    0.9467696993
16   
Iteration 16 Energy -1104.37782817
S        1.6579804838   -1.0011974101    1.1451061734
S       -1.6580866326    1.0011856313    1.1451157035
C        0.7089336129    0.0266675132    0.0825184590
C       -0.7089280069   -0.0266014862    0.0825468068
C        1.5486648618    0.8236541850   -0.6689539911
C       -1.5486401377   -0.8236058458   -0.6689158255
C        2.9329747822    0.6096083022   -0.4035622066
C       -2.9329614483   -0.6095998609   -0.4035374923
C        3.1434544129   -0.3489855403    0.5564108753
C       -3.1435664104    0.3489721446    0.5564258232
H        1.1679038698    1.5448359969   -1.3941014404
H       -1.1678541629   -1.5447745831   -1.3940618851
H        3.7400551814    1.1456930740   -0.9055118597
H       -3.7399997130   -1.1457212850   -0.9055138313
H        4.0943352884   -0.7093282693    0.9477007495
H       -4.0944739744    0.7092745491    0.9476912800
